792

    1
  0.0000000000   0.0000000000   0.0000000000 
  0.0000000000   0.0000000000   0.0000000000 
    1    1    1
 1 1 1      0.0000000000
 1 1 2      0.0287316412
 1 1 3      0.0000000000
 1 2 1      0.0287316412
 1 2 2     -0.0000000000
 1 2 3      0.0000000000
 1 3 1      0.0000000000
 1 3 2      0.0000000000
 1 3 3     -0.0000000000
 2 1 1      0.0287316412
 2 1 2     -0.0000000000
 2 1 3      0.0000000000
 2 2 1     -0.0000000000
 2 2 2     -0.3615217956
 2 2 3      0.0000000000
 2 3 1      0.0000000000
 2 3 2      0.0000000000
 2 3 3      0.2749206607
 3 1 1      0.0000000000
 3 1 2      0.0000000000
 3 1 3     -0.0000000000
 3 2 1      0.0000000000
 3 2 2      0.0000000000
 3 2 3      0.2749206607
 3 3 1      0.0000000000
 3 3 2      0.2749206607
 3 3 3      0.0000000000

    2
  0.0000000000   0.0000000000   0.0000000000 
  0.0000000000   0.0000000000   0.0000000000 
    1    1    2
 1 1 1      0.0000000000
 1 1 2      0.0179992652
 1 1 3      0.0121431148
 1 2 1      0.0179992652
 1 2 2     -0.0000000000
 1 2 3      0.0000000000
 1 3 1      0.0121431148
 1 3 2      0.0000000000
 1 3 3      0.0000000000
 2 1 1      0.0179992652
 2 1 2     -0.0000000000
 2 1 3      0.0000000000
 2 2 1      0.0000000000
 2 2 2     -0.0127868889
 2 2 3     -0.0457323483
 2 3 1      0.0000000000
 2 3 2     -0.0457323483
 2 3 3     -0.0208061396
 3 1 1      0.0121431148
 3 1 2      0.0000000000
 3 1 3      0.0000000000
 3 2 1      0.0000000000
 3 2 2     -0.0457323483
 3 2 3     -0.0208061396
 3 3 1     -0.0000000000
 3 3 2     -0.0208061396
 3 3 3      0.0077452854

    3
  0.0000000000   0.0000000000   0.0000000000 
  0.0000000000   0.0000000000   0.0000000000 
    1    1    3
 1 1 1      0.0010155012
 1 1 2     -0.0110257962
 1 1 3     -0.0050272109
 1 2 1     -0.0110257962
 1 2 2      0.0198993732
 1 2 3      0.0176595724
 1 3 1     -0.0050272109
 1 3 2      0.0176595724
 1 3 3     -0.0077093409
 2 1 1     -0.0110257962
 2 1 2      0.0198993732
 2 1 3      0.0176595724
 2 2 1      0.0198993732
 2 2 2      0.0184494647
 2 2 3     -0.0242710690
 2 3 1      0.0176595724
 2 3 2     -0.0242710690
 2 3 3      0.0008520530
 3 1 1     -0.0050272109
 3 1 2      0.0176595724
 3 1 3     -0.0077093409
 3 2 1      0.0176595724
 3 2 2     -0.0242710690
 3 2 3      0.0008520530
 3 3 1     -0.0077093409
 3 3 2      0.0008520530
 3 3 3      0.0033588207

    4
  0.0000000000   0.0000000000   0.0000000000 
  5.0182402795  -6.4696157646   0.0000000000 
    1    1    3
 1 1 1     -0.0065137950
 1 1 2      0.0036385398
 1 1 3     -0.0022594885
 1 2 1      0.0036385398
 1 2 2      0.0073804691
 1 2 3     -0.0068731644
 1 3 1     -0.0022594885
 1 3 2     -0.0068731644
 1 3 3      0.0108381436
 2 1 1      0.0036385398
 2 1 2      0.0073804691
 2 1 3     -0.0068731644
 2 2 1      0.0073804691
 2 2 2      0.0045687975
 2 2 3      0.0018760655
 2 3 1     -0.0068731644
 2 3 2      0.0018760655
 2 3 3      0.0119399294
 3 1 1     -0.0022594885
 3 1 2     -0.0068731644
 3 1 3      0.0108381436
 3 2 1     -0.0068731644
 3 2 2      0.0018760655
 3 2 3      0.0119399294
 3 3 1      0.0108381436
 3 3 2      0.0119399294
 3 3 3      0.0044570875

    5
  0.0000000000   0.0000000000   0.0000000000 
  0.0000000000   0.0000000000   0.0000000000 
    1    1    4
 1 1 1     -0.0010155012
 1 1 2     -0.0110257962
 1 1 3     -0.0050272109
 1 2 1     -0.0110257962
 1 2 2     -0.0198993732
 1 2 3     -0.0176595724
 1 3 1     -0.0050272109
 1 3 2     -0.0176595724
 1 3 3      0.0077093409
 2 1 1     -0.0110257962
 2 1 2     -0.0198993732
 2 1 3     -0.0176595724
 2 2 1     -0.0198993732
 2 2 2      0.0184494647
 2 2 3     -0.0242710690
 2 3 1     -0.0176595724
 2 3 2     -0.0242710690
 2 3 3      0.0008520530
 3 1 1     -0.0050272109
 3 1 2     -0.0176595724
 3 1 3      0.0077093409
 3 2 1     -0.0176595724
 3 2 2     -0.0242710690
 3 2 3      0.0008520530
 3 3 1      0.0077093409
 3 3 2      0.0008520530
 3 3 3      0.0033588207

    6
  0.0000000000   0.0000000000   0.0000000000 
  0.0000000000   0.0000000000   0.0000000000 
    1    1    5
 1 1 1     -0.0010155012
 1 1 2     -0.0110257962
 1 1 3      0.0050272109
 1 2 1     -0.0110257962
 1 2 2     -0.0198993732
 1 2 3      0.0176595724
 1 3 1      0.0050272109
 1 3 2      0.0176595724
 1 3 3      0.0077093409
 2 1 1     -0.0110257962
 2 1 2     -0.0198993732
 2 1 3      0.0176595724
 2 2 1     -0.0198993732
 2 2 2      0.0184494647
 2 2 3      0.0242710690
 2 3 1      0.0176595724
 2 3 2      0.0242710690
 2 3 3      0.0008520530
 3 1 1      0.0050272109
 3 1 2      0.0176595724
 3 1 3      0.0077093409
 3 2 1      0.0176595724
 3 2 2      0.0242710690
 3 2 3      0.0008520530
 3 3 1      0.0077093409
 3 3 2      0.0008520530
 3 3 3     -0.0033588207

    7
  0.0000000000   0.0000000000   0.0000000000 
  0.0000000000   0.0000000000   0.0000000000 
    1    1    6
 1 1 1      0.0010155012
 1 1 2     -0.0110257962
 1 1 3      0.0050272109
 1 2 1     -0.0110257962
 1 2 2      0.0198993732
 1 2 3     -0.0176595724
 1 3 1      0.0050272109
 1 3 2     -0.0176595724
 1 3 3     -0.0077093409
 2 1 1     -0.0110257962
 2 1 2      0.0198993732
 2 1 3     -0.0176595724
 2 2 1      0.0198993732
 2 2 2      0.0184494647
 2 2 3      0.0242710690
 2 3 1     -0.0176595724
 2 3 2      0.0242710690
 2 3 3      0.0008520530
 3 1 1      0.0050272109
 3 1 2     -0.0176595724
 3 1 3     -0.0077093409
 3 2 1     -0.0176595724
 3 2 2      0.0242710690
 3 2 3      0.0008520530
 3 3 1     -0.0077093409
 3 3 2      0.0008520530
 3 3 3     -0.0033588207

    8
  0.0000000000   0.0000000000   0.0000000000 
  5.0182402795  -6.4696157646   0.0000000000 
    1    1    6
 1 1 1     -0.0065137950
 1 1 2      0.0036385398
 1 1 3      0.0022594885
 1 2 1      0.0036385398
 1 2 2      0.0073804691
 1 2 3      0.0068731644
 1 3 1      0.0022594885
 1 3 2      0.0068731644
 1 3 3      0.0108381436
 2 1 1      0.0036385398
 2 1 2      0.0073804691
 2 1 3      0.0068731644
 2 2 1      0.0073804691
 2 2 2      0.0045687975
 2 2 3     -0.0018760655
 2 3 1      0.0068731644
 2 3 2     -0.0018760655
 2 3 3      0.0119399294
 3 1 1      0.0022594885
 3 1 2      0.0068731644
 3 1 3      0.0108381436
 3 2 1      0.0068731644
 3 2 2     -0.0018760655
 3 2 3      0.0119399294
 3 3 1      0.0108381436
 3 3 2      0.0119399294
 3 3 3     -0.0044570875

    9
  0.0000000000   0.0000000000   0.0000000000 
  0.0000000000   0.0000000000   0.0000000000 
    1    1    7
 1 1 1     -0.1431996833
 1 1 2     -0.0626875565
 1 1 3     -0.4012650132
 1 2 1     -0.0626875565
 1 2 2      0.0551398365
 1 2 3     -0.1350165350
 1 3 1     -0.4012650132
 1 3 2     -0.1350165350
 1 3 3     -0.6430569865
 2 1 1     -0.0626875565
 2 1 2      0.0551398365
 2 1 3     -0.1350165350
 2 2 1      0.0551398365
 2 2 2      0.0789759070
 2 2 3      0.0614402486
 2 3 1     -0.1350165350
 2 3 2      0.0614402486
 2 3 3     -0.1808537214
 3 1 1     -0.4012650132
 3 1 2     -0.1350165350
 3 1 3     -0.6430569865
 3 2 1     -0.1350165350
 3 2 2      0.0614402486
 3 2 3     -0.1808537214
 3 3 1     -0.6430569865
 3 3 2     -0.1808537214
 3 3 3     -0.6735413947

   10
  0.0000000000   0.0000000000   0.0000000000 
  0.0000000000   0.0000000000   0.0000000000 
    1    1    8
 1 1 1      0.0193520338
 1 1 2     -0.0885091357
 1 1 3      0.0000000000
 1 2 1     -0.0885091357
 1 2 2      0.1035635365
 1 2 3      0.0000000000
 1 3 1      0.0000000000
 1 3 2      0.0000000000
 1 3 3     -0.0037657065
 2 1 1     -0.0885091357
 2 1 2      0.1035635365
 2 1 3      0.0000000000
 2 2 1      0.1035635365
 2 2 2     -0.3031887921
 2 2 3      0.0000000000
 2 3 1      0.0000000000
 2 3 2      0.0000000000
 2 3 3     -0.0017979185
 3 1 1      0.0000000000
 3 1 2      0.0000000000
 3 1 3     -0.0037657065
 3 2 1      0.0000000000
 3 2 2      0.0000000000
 3 2 3     -0.0017979185
 3 3 1     -0.0037657065
 3 3 2     -0.0017979185
 3 3 3      0.0000000000

   11
  0.0000000000   0.0000000000   0.0000000000 
  5.0182402795  -6.4696157646   0.0000000000 
    1    1    8
 1 1 1     -0.2469497003
 1 1 2      0.2425841721
 1 1 3      0.0000000000
 1 2 1      0.2425841721
 1 2 2     -0.2887978545
 1 2 3      0.0000000000
 1 3 1      0.0000000000
 1 3 2      0.0000000000
 1 3 3      0.0212745765
 2 1 1      0.2425841721
 2 1 2     -0.2887978545
 2 1 3      0.0000000000
 2 2 1     -0.2887978545
 2 2 2      0.1489932851
 2 2 3      0.0000000000
 2 3 1      0.0000000000
 2 3 2      0.0000000000
 2 3 3     -0.0501019768
 3 1 1      0.0000000000
 3 1 2      0.0000000000
 3 1 3      0.0212745765
 3 2 1      0.0000000000
 3 2 2      0.0000000000
 3 2 3     -0.0501019768
 3 3 1      0.0212745765
 3 3 2     -0.0501019768
 3 3 3      0.0000000000

   12
  0.0000000000   0.0000000000   0.0000000000 
  0.0000000000   0.0000000000   0.0000000000 
    1    1    9
 1 1 1      0.1431996833
 1 1 2     -0.0626875565
 1 1 3     -0.4012650132
 1 2 1     -0.0626875565
 1 2 2     -0.0551398365
 1 2 3      0.1350165350
 1 3 1     -0.4012650132
 1 3 2      0.1350165350
 1 3 3      0.6430569865
 2 1 1     -0.0626875565
 2 1 2     -0.0551398365
 2 1 3      0.1350165350
 2 2 1     -0.0551398365
 2 2 2      0.0789759070
 2 2 3      0.0614402486
 2 3 1      0.1350165350
 2 3 2      0.0614402486
 2 3 3     -0.1808537214
 3 1 1     -0.4012650132
 3 1 2      0.1350165350
 3 1 3      0.6430569865
 3 2 1      0.1350165350
 3 2 2      0.0614402486
 3 2 3     -0.1808537214
 3 3 1      0.6430569865
 3 3 2     -0.1808537214
 3 3 3     -0.6735413947

   13
  0.0000000000   0.0000000000   0.0000000000 
  0.0000000000   0.0000000000   0.0000000000 
    1    1   10
 1 1 1     -0.0193520338
 1 1 2     -0.0885091357
 1 1 3      0.0000000000
 1 2 1     -0.0885091357
 1 2 2     -0.1035635365
 1 2 3      0.0000000000
 1 3 1      0.0000000000
 1 3 2      0.0000000000
 1 3 3      0.0037657065
 2 1 1     -0.0885091357
 2 1 2     -0.1035635365
 2 1 3      0.0000000000
 2 2 1     -0.1035635365
 2 2 2     -0.3031887921
 2 2 3      0.0000000000
 2 3 1      0.0000000000
 2 3 2      0.0000000000
 2 3 3     -0.0017979185
 3 1 1      0.0000000000
 3 1 2      0.0000000000
 3 1 3      0.0037657065
 3 2 1      0.0000000000
 3 2 2      0.0000000000
 3 2 3     -0.0017979185
 3 3 1      0.0037657065
 3 3 2     -0.0017979185
 3 3 3      0.0000000000

   14
  0.0000000000   0.0000000000   0.0000000000 
  0.0000000000   0.0000000000   0.0000000000 
    1    1   11
 1 1 1     -0.0000000000
 1 1 2     -0.0687750565
 1 1 3      0.0567512185
 1 2 1     -0.0687750565
 1 2 2      0.0000000000
 1 2 3      0.0000000000
 1 3 1      0.0567512185
 1 3 2      0.0000000000
 1 3 3     -0.0000000000
 2 1 1     -0.0687750565
 2 1 2      0.0000000000
 2 1 3      0.0000000000
 2 2 1     -0.0000000000
 2 2 2      0.0883913033
 2 2 3     -0.2295063863
 2 3 1      0.0000000000
 2 3 2     -0.2295063863
 2 3 3      0.2665836848
 3 1 1      0.0567512185
 3 1 2      0.0000000000
 3 1 3     -0.0000000000
 3 2 1      0.0000000000
 3 2 2     -0.2295063863
 3 2 3      0.2665836848
 3 3 1      0.0000000000
 3 3 2      0.2665836848
 3 3 3     -0.2417272281

   15
  0.0000000000   0.0000000000   0.0000000000 
  5.0182402795  -6.4696157646   0.0000000000 
    1    1   12
 1 1 1      0.0072172184
 1 1 2      0.0224845600
 1 1 3      0.0000000000
 1 2 1      0.0224845600
 1 2 2      0.0071123993
 1 2 3      0.0000000000
 1 3 1      0.0000000000
 1 3 2      0.0000000000
 1 3 3      0.0079555534
 2 1 1      0.0224845600
 2 1 2      0.0071123993
 2 1 3      0.0000000000
 2 2 1      0.0071123993
 2 2 2      0.0553636520
 2 2 3      0.0000000000
 2 3 1      0.0000000000
 2 3 2      0.0000000000
 2 3 3      0.0047854976
 3 1 1      0.0000000000
 3 1 2      0.0000000000
 3 1 3      0.0079555534
 3 2 1      0.0000000000
 3 2 2      0.0000000000
 3 2 3      0.0047854976
 3 3 1      0.0079555534
 3 3 2      0.0047854976
 3 3 3      0.0000000000

   16
  0.0000000000   0.0000000000   0.0000000000 
  0.0000000000   0.0000000000   0.0000000000 
    1    2    1
 1 1 1      0.0000000000
 1 1 2      0.0179992652
 1 1 3      0.0121431148
 1 2 1      0.0179992652
 1 2 2     -0.0000000000
 1 2 3      0.0000000000
 1 3 1      0.0121431148
 1 3 2      0.0000000000
 1 3 3      0.0000000000
 2 1 1      0.0179992652
 2 1 2      0.0000000000
 2 1 3      0.0000000000
 2 2 1     -0.0000000000
 2 2 2     -0.0127868889
 2 2 3     -0.0457323483
 2 3 1      0.0000000000
 2 3 2     -0.0457323483
 2 3 3     -0.0208061396
 3 1 1      0.0121431148
 3 1 2      0.0000000000
 3 1 3     -0.0000000000
 3 2 1      0.0000000000
 3 2 2     -0.0457323483
 3 2 3     -0.0208061396
 3 3 1      0.0000000000
 3 3 2     -0.0208061396
 3 3 3      0.0077452854

   17
  0.0000000000   0.0000000000   0.0000000000 
  0.0000000000   0.0000000000   0.0000000000 
    1    2    2
 1 1 1     -0.0000000000
 1 1 2     -0.0179992652
 1 1 3     -0.0121431148
 1 2 1     -0.0179992652
 1 2 2     -0.0000000000
 1 2 3     -0.0000000000
 1 3 1     -0.0121431148
 1 3 2     -0.0000000000
 1 3 3      0.0000000000
 2 1 1     -0.0179992652
 2 1 2      0.0000000000
 2 1 3     -0.0000000000
 2 2 1      0.0000000000
 2 2 2      0.0127868889
 2 2 3      0.0457323483
 2 3 1     -0.0000000000
 2 3 2      0.0457323483
 2 3 3      0.0208061396
 3 1 1     -0.0121431148
 3 1 2     -0.0000000000
 3 1 3     -0.0000000000
 3 2 1     -0.0000000000
 3 2 2      0.0457323483
 3 2 3      0.0208061396
 3 3 1     -0.0000000000
 3 3 2      0.0208061396
 3 3 3     -0.0077452854

   18
  0.0000000000   0.0000000000   0.0000000000 
  0.0000000000   0.0000000000   0.0000000000 
    1    3    1
 1 1 1      0.0010155012
 1 1 2     -0.0110257962
 1 1 3     -0.0050272109
 1 2 1     -0.0110257962
 1 2 2      0.0198993732
 1 2 3      0.0176595724
 1 3 1     -0.0050272109
 1 3 2      0.0176595724
 1 3 3     -0.0077093409
 2 1 1     -0.0110257962
 2 1 2      0.0198993732
 2 1 3      0.0176595724
 2 2 1      0.0198993732
 2 2 2      0.0184494647
 2 2 3     -0.0242710690
 2 3 1      0.0176595724
 2 3 2     -0.0242710690
 2 3 3      0.0008520530
 3 1 1     -0.0050272109
 3 1 2      0.0176595724
 3 1 3     -0.0077093409
 3 2 1      0.0176595724
 3 2 2     -0.0242710690
 3 2 3      0.0008520530
 3 3 1     -0.0077093409
 3 3 2      0.0008520530
 3 3 3      0.0033588207

   19
  0.0000000000   0.0000000000   0.0000000000 
  0.0000000000   0.0000000000   0.0000000000 
    1    3    3
 1 1 1     -0.0010155012
 1 1 2      0.0110257962
 1 1 3      0.0050272109
 1 2 1      0.0110257962
 1 2 2     -0.0198993732
 1 2 3     -0.0176595724
 1 3 1      0.0050272109
 1 3 2     -0.0176595724
 1 3 3      0.0077093409
 2 1 1      0.0110257962
 2 1 2     -0.0198993732
 2 1 3     -0.0176595724
 2 2 1     -0.0198993732
 2 2 2     -0.0184494647
 2 2 3      0.0242710690
 2 3 1     -0.0176595724
 2 3 2      0.0242710690
 2 3 3     -0.0008520530
 3 1 1      0.0050272109
 3 1 2     -0.0176595724
 3 1 3      0.0077093409
 3 2 1     -0.0176595724
 3 2 2      0.0242710690
 3 2 3     -0.0008520530
 3 3 1      0.0077093409
 3 3 2     -0.0008520530
 3 3 3     -0.0033588207

   20
  5.0182402795  -6.4696157646   0.0000000000 
  0.0000000000   0.0000000000   0.0000000000 
    1    3    1
 1 1 1     -0.0065137950
 1 1 2      0.0036385398
 1 1 3     -0.0022594885
 1 2 1      0.0036385398
 1 2 2      0.0073804691
 1 2 3     -0.0068731644
 1 3 1     -0.0022594885
 1 3 2     -0.0068731644
 1 3 3      0.0108381436
 2 1 1      0.0036385398
 2 1 2      0.0073804691
 2 1 3     -0.0068731644
 2 2 1      0.0073804691
 2 2 2      0.0045687975
 2 2 3      0.0018760655
 2 3 1     -0.0068731644
 2 3 2      0.0018760655
 2 3 3      0.0119399294
 3 1 1     -0.0022594885
 3 1 2     -0.0068731644
 3 1 3      0.0108381436
 3 2 1     -0.0068731644
 3 2 2      0.0018760655
 3 2 3      0.0119399294
 3 3 1      0.0108381436
 3 3 2      0.0119399294
 3 3 3      0.0044570875

   21
  5.0182402795  -6.4696157646   0.0000000000 
  5.0182402795  -6.4696157646   0.0000000000 
    1    3    3
 1 1 1      0.0065137950
 1 1 2     -0.0036385398
 1 1 3      0.0022594885
 1 2 1     -0.0036385398
 1 2 2     -0.0073804691
 1 2 3      0.0068731644
 1 3 1      0.0022594885
 1 3 2      0.0068731644
 1 3 3     -0.0108381436
 2 1 1     -0.0036385398
 2 1 2     -0.0073804691
 2 1 3      0.0068731644
 2 2 1     -0.0073804691
 2 2 2     -0.0045687975
 2 2 3     -0.0018760655
 2 3 1      0.0068731644
 2 3 2     -0.0018760655
 2 3 3     -0.0119399294
 3 1 1      0.0022594885
 3 1 2      0.0068731644
 3 1 3     -0.0108381436
 3 2 1      0.0068731644
 3 2 2     -0.0018760655
 3 2 3     -0.0119399294
 3 3 1     -0.0108381436
 3 3 2     -0.0119399294
 3 3 3     -0.0044570875

   22
  0.0000000000   0.0000000000   0.0000000000 
  0.0000000000   0.0000000000   0.0000000000 
    1    4    1
 1 1 1     -0.0010155012
 1 1 2     -0.0110257962
 1 1 3     -0.0050272109
 1 2 1     -0.0110257962
 1 2 2     -0.0198993732
 1 2 3     -0.0176595724
 1 3 1     -0.0050272109
 1 3 2     -0.0176595724
 1 3 3      0.0077093409
 2 1 1     -0.0110257962
 2 1 2     -0.0198993732
 2 1 3     -0.0176595724
 2 2 1     -0.0198993732
 2 2 2      0.0184494647
 2 2 3     -0.0242710690
 2 3 1     -0.0176595724
 2 3 2     -0.0242710690
 2 3 3      0.0008520530
 3 1 1     -0.0050272109
 3 1 2     -0.0176595724
 3 1 3      0.0077093409
 3 2 1     -0.0176595724
 3 2 2     -0.0242710690
 3 2 3      0.0008520530
 3 3 1      0.0077093409
 3 3 2      0.0008520530
 3 3 3      0.0033588207

   23
  0.0000000000   0.0000000000   0.0000000000 
  0.0000000000   0.0000000000   0.0000000000 
    1    4    4
 1 1 1      0.0010155012
 1 1 2      0.0110257962
 1 1 3      0.0050272109
 1 2 1      0.0110257962
 1 2 2      0.0198993732
 1 2 3      0.0176595724
 1 3 1      0.0050272109
 1 3 2      0.0176595724
 1 3 3     -0.0077093409
 2 1 1      0.0110257962
 2 1 2      0.0198993732
 2 1 3      0.0176595724
 2 2 1      0.0198993732
 2 2 2     -0.0184494647
 2 2 3      0.0242710690
 2 3 1      0.0176595724
 2 3 2      0.0242710690
 2 3 3     -0.0008520530
 3 1 1      0.0050272109
 3 1 2      0.0176595724
 3 1 3     -0.0077093409
 3 2 1      0.0176595724
 3 2 2      0.0242710690
 3 2 3     -0.0008520530
 3 3 1     -0.0077093409
 3 3 2     -0.0008520530
 3 3 3     -0.0033588207

   24
  0.0000000000   0.0000000000   0.0000000000 
  0.0000000000   0.0000000000   0.0000000000 
    1    5    1
 1 1 1     -0.0010155012
 1 1 2     -0.0110257962
 1 1 3      0.0050272109
 1 2 1     -0.0110257962
 1 2 2     -0.0198993732
 1 2 3      0.0176595724
 1 3 1      0.0050272109
 1 3 2      0.0176595724
 1 3 3      0.0077093409
 2 1 1     -0.0110257962
 2 1 2     -0.0198993732
 2 1 3      0.0176595724
 2 2 1     -0.0198993732
 2 2 2      0.0184494647
 2 2 3      0.0242710690
 2 3 1      0.0176595724
 2 3 2      0.0242710690
 2 3 3      0.0008520530
 3 1 1      0.0050272109
 3 1 2      0.0176595724
 3 1 3      0.0077093409
 3 2 1      0.0176595724
 3 2 2      0.0242710690
 3 2 3      0.0008520530
 3 3 1      0.0077093409
 3 3 2      0.0008520530
 3 3 3     -0.0033588207

   25
  0.0000000000   0.0000000000   0.0000000000 
  0.0000000000   0.0000000000   0.0000000000 
    1    5    5
 1 1 1      0.0010155012
 1 1 2      0.0110257962
 1 1 3     -0.0050272109
 1 2 1      0.0110257962
 1 2 2      0.0198993732
 1 2 3     -0.0176595724
 1 3 1     -0.0050272109
 1 3 2     -0.0176595724
 1 3 3     -0.0077093409
 2 1 1      0.0110257962
 2 1 2      0.0198993732
 2 1 3     -0.0176595724
 2 2 1      0.0198993732
 2 2 2     -0.0184494647
 2 2 3     -0.0242710690
 2 3 1     -0.0176595724
 2 3 2     -0.0242710690
 2 3 3     -0.0008520530
 3 1 1     -0.0050272109
 3 1 2     -0.0176595724
 3 1 3     -0.0077093409
 3 2 1     -0.0176595724
 3 2 2     -0.0242710690
 3 2 3     -0.0008520530
 3 3 1     -0.0077093409
 3 3 2     -0.0008520530
 3 3 3      0.0033588207

   26
  0.0000000000   0.0000000000   0.0000000000 
  0.0000000000   0.0000000000   0.0000000000 
    1    6    1
 1 1 1      0.0010155012
 1 1 2     -0.0110257962
 1 1 3      0.0050272109
 1 2 1     -0.0110257962
 1 2 2      0.0198993732
 1 2 3     -0.0176595724
 1 3 1      0.0050272109
 1 3 2     -0.0176595724
 1 3 3     -0.0077093409
 2 1 1     -0.0110257962
 2 1 2      0.0198993732
 2 1 3     -0.0176595724
 2 2 1      0.0198993732
 2 2 2      0.0184494647
 2 2 3      0.0242710690
 2 3 1     -0.0176595724
 2 3 2      0.0242710690
 2 3 3      0.0008520530
 3 1 1      0.0050272109
 3 1 2     -0.0176595724
 3 1 3     -0.0077093409
 3 2 1     -0.0176595724
 3 2 2      0.0242710690
 3 2 3      0.0008520530
 3 3 1     -0.0077093409
 3 3 2      0.0008520530
 3 3 3     -0.0033588207

   27
  0.0000000000   0.0000000000   0.0000000000 
  0.0000000000   0.0000000000   0.0000000000 
    1    6    6
 1 1 1     -0.0010155012
 1 1 2      0.0110257962
 1 1 3     -0.0050272109
 1 2 1      0.0110257962
 1 2 2     -0.0198993732
 1 2 3      0.0176595724
 1 3 1     -0.0050272109
 1 3 2      0.0176595724
 1 3 3      0.0077093409
 2 1 1      0.0110257962
 2 1 2     -0.0198993732
 2 1 3      0.0176595724
 2 2 1     -0.0198993732
 2 2 2     -0.0184494647
 2 2 3     -0.0242710690
 2 3 1      0.0176595724
 2 3 2     -0.0242710690
 2 3 3     -0.0008520530
 3 1 1     -0.0050272109
 3 1 2      0.0176595724
 3 1 3      0.0077093409
 3 2 1      0.0176595724
 3 2 2     -0.0242710690
 3 2 3     -0.0008520530
 3 3 1      0.0077093409
 3 3 2     -0.0008520530
 3 3 3      0.0033588207

   28
  5.0182402795  -6.4696157646   0.0000000000 
  0.0000000000   0.0000000000   0.0000000000 
    1    6    1
 1 1 1     -0.0065137950
 1 1 2      0.0036385398
 1 1 3      0.0022594885
 1 2 1      0.0036385398
 1 2 2      0.0073804691
 1 2 3      0.0068731644
 1 3 1      0.0022594885
 1 3 2      0.0068731644
 1 3 3      0.0108381436
 2 1 1      0.0036385398
 2 1 2      0.0073804691
 2 1 3      0.0068731644
 2 2 1      0.0073804691
 2 2 2      0.0045687975
 2 2 3     -0.0018760655
 2 3 1      0.0068731644
 2 3 2     -0.0018760655
 2 3 3      0.0119399294
 3 1 1      0.0022594885
 3 1 2      0.0068731644
 3 1 3      0.0108381436
 3 2 1      0.0068731644
 3 2 2     -0.0018760655
 3 2 3      0.0119399294
 3 3 1      0.0108381436
 3 3 2      0.0119399294
 3 3 3     -0.0044570875

   29
  5.0182402795  -6.4696157646   0.0000000000 
  5.0182402795  -6.4696157646   0.0000000000 
    1    6    6
 1 1 1      0.0065137950
 1 1 2     -0.0036385398
 1 1 3     -0.0022594885
 1 2 1     -0.0036385398
 1 2 2     -0.0073804691
 1 2 3     -0.0068731644
 1 3 1     -0.0022594885
 1 3 2     -0.0068731644
 1 3 3     -0.0108381436
 2 1 1     -0.0036385398
 2 1 2     -0.0073804691
 2 1 3     -0.0068731644
 2 2 1     -0.0073804691
 2 2 2     -0.0045687975
 2 2 3      0.0018760655
 2 3 1     -0.0068731644
 2 3 2      0.0018760655
 2 3 3     -0.0119399294
 3 1 1     -0.0022594885
 3 1 2     -0.0068731644
 3 1 3     -0.0108381436
 3 2 1     -0.0068731644
 3 2 2      0.0018760655
 3 2 3     -0.0119399294
 3 3 1     -0.0108381436
 3 3 2     -0.0119399294
 3 3 3      0.0044570875

   30
  0.0000000000   0.0000000000   0.0000000000 
  0.0000000000   0.0000000000   0.0000000000 
    1    7    1
 1 1 1     -0.1431996833
 1 1 2     -0.0626875565
 1 1 3     -0.4012650132
 1 2 1     -0.0626875565
 1 2 2      0.0551398365
 1 2 3     -0.1350165350
 1 3 1     -0.4012650132
 1 3 2     -0.1350165350
 1 3 3     -0.6430569865
 2 1 1     -0.0626875565
 2 1 2      0.0551398365
 2 1 3     -0.1350165350
 2 2 1      0.0551398365
 2 2 2      0.0789759070
 2 2 3      0.0614402486
 2 3 1     -0.1350165350
 2 3 2      0.0614402486
 2 3 3     -0.1808537214
 3 1 1     -0.4012650132
 3 1 2     -0.1350165350
 3 1 3     -0.6430569865
 3 2 1     -0.1350165350
 3 2 2      0.0614402486
 3 2 3     -0.1808537214
 3 3 1     -0.6430569865
 3 3 2     -0.1808537214
 3 3 3     -0.6735413947

   31
  0.0000000000   0.0000000000   0.0000000000 
  0.0000000000   0.0000000000   0.0000000000 
    1    7    7
 1 1 1      0.1431996833
 1 1 2      0.0626875565
 1 1 3      0.4012650132
 1 2 1      0.0626875565
 1 2 2     -0.0551398365
 1 2 3      0.1350165350
 1 3 1      0.4012650132
 1 3 2      0.1350165350
 1 3 3      0.6430569865
 2 1 1      0.0626875565
 2 1 2     -0.0551398365
 2 1 3      0.1350165350
 2 2 1     -0.0551398365
 2 2 2     -0.0789759070
 2 2 3     -0.0614402486
 2 3 1      0.1350165350
 2 3 2     -0.0614402486
 2 3 3      0.1808537214
 3 1 1      0.4012650132
 3 1 2      0.1350165350
 3 1 3      0.6430569865
 3 2 1      0.1350165350
 3 2 2     -0.0614402486
 3 2 3      0.1808537214
 3 3 1      0.6430569865
 3 3 2      0.1808537214
 3 3 3      0.6735413947

   32
  0.0000000000   0.0000000000   0.0000000000 
  0.0000000000   0.0000000000   0.0000000000 
    1    8    1
 1 1 1      0.0193520338
 1 1 2     -0.0885091357
 1 1 3      0.0000000000
 1 2 1     -0.0885091357
 1 2 2      0.1035635365
 1 2 3      0.0000000000
 1 3 1      0.0000000000
 1 3 2      0.0000000000
 1 3 3     -0.0037657065
 2 1 1     -0.0885091357
 2 1 2      0.1035635365
 2 1 3      0.0000000000
 2 2 1      0.1035635365
 2 2 2     -0.3031887921
 2 2 3      0.0000000000
 2 3 1      0.0000000000
 2 3 2      0.0000000000
 2 3 3     -0.0017979185
 3 1 1      0.0000000000
 3 1 2      0.0000000000
 3 1 3     -0.0037657065
 3 2 1      0.0000000000
 3 2 2      0.0000000000
 3 2 3     -0.0017979185
 3 3 1     -0.0037657065
 3 3 2     -0.0017979185
 3 3 3      0.0000000000

   33
  0.0000000000   0.0000000000   0.0000000000 
  0.0000000000   0.0000000000   0.0000000000 
    1    8    8
 1 1 1     -0.0193520338
 1 1 2      0.0885091357
 1 1 3      0.0000000000
 1 2 1      0.0885091357
 1 2 2     -0.1035635365
 1 2 3      0.0000000000
 1 3 1      0.0000000000
 1 3 2      0.0000000000
 1 3 3      0.0037657065
 2 1 1      0.0885091357
 2 1 2     -0.1035635365
 2 1 3      0.0000000000
 2 2 1     -0.1035635365
 2 2 2      0.3031887921
 2 2 3      0.0000000000
 2 3 1      0.0000000000
 2 3 2      0.0000000000
 2 3 3      0.0017979185
 3 1 1      0.0000000000
 3 1 2      0.0000000000
 3 1 3      0.0037657065
 3 2 1      0.0000000000
 3 2 2      0.0000000000
 3 2 3      0.0017979185
 3 3 1      0.0037657065
 3 3 2      0.0017979185
 3 3 3      0.0000000000

   34
  5.0182402795  -6.4696157646   0.0000000000 
  0.0000000000   0.0000000000   0.0000000000 
    1    8    1
 1 1 1     -0.2469497003
 1 1 2      0.2425841721
 1 1 3      0.0000000000
 1 2 1      0.2425841721
 1 2 2     -0.2887978545
 1 2 3      0.0000000000
 1 3 1      0.0000000000
 1 3 2      0.0000000000
 1 3 3      0.0212745765
 2 1 1      0.2425841721
 2 1 2     -0.2887978545
 2 1 3      0.0000000000
 2 2 1     -0.2887978545
 2 2 2      0.1489932851
 2 2 3      0.0000000000
 2 3 1      0.0000000000
 2 3 2      0.0000000000
 2 3 3     -0.0501019768
 3 1 1      0.0000000000
 3 1 2      0.0000000000
 3 1 3      0.0212745765
 3 2 1      0.0000000000
 3 2 2      0.0000000000
 3 2 3     -0.0501019768
 3 3 1      0.0212745765
 3 3 2     -0.0501019768
 3 3 3      0.0000000000

   35
  5.0182402795  -6.4696157646   0.0000000000 
  5.0182402795  -6.4696157646   0.0000000000 
    1    8    8
 1 1 1      0.2469497003
 1 1 2     -0.2425841721
 1 1 3      0.0000000000
 1 2 1     -0.2425841721
 1 2 2      0.2887978545
 1 2 3      0.0000000000
 1 3 1      0.0000000000
 1 3 2      0.0000000000
 1 3 3     -0.0212745765
 2 1 1     -0.2425841721
 2 1 2      0.2887978545
 2 1 3      0.0000000000
 2 2 1      0.2887978545
 2 2 2     -0.1489932851
 2 2 3      0.0000000000
 2 3 1      0.0000000000
 2 3 2      0.0000000000
 2 3 3      0.0501019768
 3 1 1      0.0000000000
 3 1 2      0.0000000000
 3 1 3     -0.0212745765
 3 2 1      0.0000000000
 3 2 2      0.0000000000
 3 2 3      0.0501019768
 3 3 1     -0.0212745765
 3 3 2      0.0501019768
 3 3 3      0.0000000000

   36
  0.0000000000   0.0000000000   0.0000000000 
  0.0000000000   0.0000000000   0.0000000000 
    1    9    1
 1 1 1      0.1431996833
 1 1 2     -0.0626875565
 1 1 3     -0.4012650132
 1 2 1     -0.0626875565
 1 2 2     -0.0551398365
 1 2 3      0.1350165350
 1 3 1     -0.4012650132
 1 3 2      0.1350165350
 1 3 3      0.6430569865
 2 1 1     -0.0626875565
 2 1 2     -0.0551398365
 2 1 3      0.1350165350
 2 2 1     -0.0551398365
 2 2 2      0.0789759070
 2 2 3      0.0614402486
 2 3 1      0.1350165350
 2 3 2      0.0614402486
 2 3 3     -0.1808537214
 3 1 1     -0.4012650132
 3 1 2      0.1350165350
 3 1 3      0.6430569865
 3 2 1      0.1350165350
 3 2 2      0.0614402486
 3 2 3     -0.1808537214
 3 3 1      0.6430569865
 3 3 2     -0.1808537214
 3 3 3     -0.6735413947

   37
  0.0000000000   0.0000000000   0.0000000000 
  0.0000000000   0.0000000000   0.0000000000 
    1    9    9
 1 1 1     -0.1431996833
 1 1 2      0.0626875565
 1 1 3      0.4012650132
 1 2 1      0.0626875565
 1 2 2      0.0551398365
 1 2 3     -0.1350165350
 1 3 1      0.4012650132
 1 3 2     -0.1350165350
 1 3 3     -0.6430569865
 2 1 1      0.0626875565
 2 1 2      0.0551398365
 2 1 3     -0.1350165350
 2 2 1      0.0551398365
 2 2 2     -0.0789759070
 2 2 3     -0.0614402486
 2 3 1     -0.1350165350
 2 3 2     -0.0614402486
 2 3 3      0.1808537214
 3 1 1      0.4012650132
 3 1 2     -0.1350165350
 3 1 3     -0.6430569865
 3 2 1     -0.1350165350
 3 2 2     -0.0614402486
 3 2 3      0.1808537214
 3 3 1     -0.6430569865
 3 3 2      0.1808537214
 3 3 3      0.6735413947

   38
  0.0000000000   0.0000000000   0.0000000000 
  0.0000000000   0.0000000000   0.0000000000 
    1   10    1
 1 1 1     -0.0193520338
 1 1 2     -0.0885091357
 1 1 3      0.0000000000
 1 2 1     -0.0885091357
 1 2 2     -0.1035635365
 1 2 3      0.0000000000
 1 3 1      0.0000000000
 1 3 2      0.0000000000
 1 3 3      0.0037657065
 2 1 1     -0.0885091357
 2 1 2     -0.1035635365
 2 1 3      0.0000000000
 2 2 1     -0.1035635365
 2 2 2     -0.3031887921
 2 2 3      0.0000000000
 2 3 1      0.0000000000
 2 3 2      0.0000000000
 2 3 3     -0.0017979185
 3 1 1      0.0000000000
 3 1 2      0.0000000000
 3 1 3      0.0037657065
 3 2 1      0.0000000000
 3 2 2      0.0000000000
 3 2 3     -0.0017979185
 3 3 1      0.0037657065
 3 3 2     -0.0017979185